                              Psi4 0.2.33 Driver

  ==> Input File <==

--------------------------------------------------------------------------
set basis cc-pVDZ

molecule h20 {
0 1
O 0.010000 0.010000 0.015000
H 0.000000 -1.684917 1.067336
H 0.000000 1.684917 1.067336
units bohr
}

energy('scf')--------------------------------------------------------------------------

*** tstart() called on s172-20-46-h184.paws.uga.edu
*** at Tue Jul  7 16:06:58 2015

         ---------------------------------------------------------
                                   SCF
            by Justin Turney, Rob Parrish, and Andy Simmonett
                              RHF Reference
                        1 Threads,    256 MiB Core
         ---------------------------------------------------------

  ==> Geometry <==

    Molecular point group: cs
    Full point group: Cs

    Geometry (in Bohr), charge = 0, multiplicity = 1:

       Center              X                  Y                   Z
    ------------   -----------------  -----------------  -----------------
           O          0.117777367410     0.001119148733     0.000000000000
           H         -0.934606144860    -1.693797851267     0.000000000000
           H         -0.934606144860     1.676036148733     0.000000000000

  Running in cs symmetry.

  Rotational constants: A =     30.36667  B =     10.51965  C =      7.81305 [cm^-1]
  Rotational constants: A = 910369.95530  B = 315371.16781  C = 234229.25978 [MHz]
  Nuclear repulsion =    8.350955958181794

  Charge       = 0
  Multiplicity = 1
  Electrons    = 10
  Nalpha       = 5
  Nbeta        = 5

  ==> Algorithm <==

  SCF Algorithm Type is DF.
  DIIS enabled.
  MOM disabled.
  Fractional occupation disabled.
  Guess Type is CORE.
  Energy threshold   = 1.00e-06
  Density threshold  = 1.00e-06
  Integral threshold = 0.00e+00

  ==> Primary Basis <==

  Basis Set: CC-PVDZ
    Number of shells: 12
    Number of basis function: 24
    Number of Cartesian functions: 25
    Spherical Harmonics?: true
    Max angular momentum: 2

  ==> Pre-Iterations <==

   -------------------------------------------------------
    Irrep   Nso     Nmo     Nalpha   Nbeta   Ndocc  Nsocc
   -------------------------------------------------------
     A'        18      18       0       0       0       0
     A"         6       6       0       0       0       0
   -------------------------------------------------------
    Total      24      24       5       5       5       0
   -------------------------------------------------------

 OEINTS: Overlap, kinetic, potential, dipole, and quadrupole integrals
         stored in file 35.

  ==> Integral Setup <==

  ==> DFJK: Density-Fitted J/K Matrices <==

    J tasked:                  Yes
    K tasked:                  Yes
    wK tasked:                  No
    OpenMP threads:              1
    Integrals threads:           1
    Memory (MB):               183
    Algorithm:                Core
    Integral Cache:           NONE
    Schwarz Cutoff:          1E-12
    Fitting Condition:       1E-12

   => Auxiliary Basis Set <=

  Basis Set:
    Number of shells: 42
    Number of basis function: 116
    Number of Cartesian functions: 131
    Spherical Harmonics?: true
    Max angular momentum: 3

  Minimum eigenvalue in the overlap matrix is 4.4921813187E-02.
  Using Symmetric Orthogonalization.
  SCF Guess: Core (One-Electron) Hamiltonian.

  ==> Iterations <==

                           Total Energy        Delta E     RMS |[F,P]|

    Occupation by irrep:
             Ap   App
    DOCC [     5,    0 ]

   @DF-RHF iter   1:   -68.98580047172642   -6.89858e+01   1.51509e-01
    Occupation by irrep:
             Ap   App
    DOCC [     4,    1 ]

   @DF-RHF iter   2:   -69.97937486699533   -9.93574e-01   1.33153e-01 DIIS
   @DF-RHF iter   3:   -75.78335001728905   -5.80398e+00   3.91849e-02 DIIS
   @DF-RHF iter   4:   -75.98314797157063   -1.99798e-01   1.05277e-02 DIIS
   @DF-RHF iter   5:   -76.00232011564025   -1.91721e-02   1.08116e-03 DIIS
   @DF-RHF iter   6:   -76.00260564849864   -2.85533e-04   5.80709e-04 DIIS
   @DF-RHF iter   7:   -76.00266526725757   -5.96188e-05   7.61649e-05 DIIS
   @DF-RHF iter   8:   -76.00266769279592   -2.42554e-06   2.75347e-05 DIIS
   @DF-RHF iter   9:   -76.00266782424858   -1.31453e-07   2.84245e-06 DIIS
   @DF-RHF iter  10:   -76.00266782841933   -4.17076e-09   1.02022e-06 DIIS
   @DF-RHF iter  11:   -76.00266782865899   -2.39652e-10   1.62878e-07 DIIS

  ==> Post-Iterations <==

    Orbital Energies (a.u.)
    -----------------------

    Doubly Occupied:

       1Ap   -20.558139     2Ap    -1.286557     3Ap    -0.668248
       4Ap    -0.527206     1App   -0.482400

    Virtual:

       5Ap     0.166999     6Ap     0.240884     7Ap     0.729274
       8Ap     0.768917     9Ap     1.168403     2App    1.198360
      10Ap     1.247611     3App    1.430507    11Ap     1.545566
       4App    1.707922    12Ap     1.797709    13Ap     1.904744
      14Ap     2.269363    15Ap     2.286768     5App    3.160773
       6App    3.289629    16Ap     3.300837    17Ap     3.876704
      18Ap     3.976340

    Final Occupation by Irrep:
             Ap   App
    DOCC [     4,    1 ]

  Energy converged.

  @DF-RHF Final Energy:   -76.00266782865899

   => Energetics <=

    Nuclear Repulsion Energy =              8.3509559581817943
    One-Electron Energy =                -121.6621615268302605
    Two-Electron Energy =                  37.3085377399894824
    DFT Exchange-Correlation Energy =       0.0000000000000000
    Empirical Dispersion Energy =           0.0000000000000000
    PCM Polarization Energy =               0.0000000000000000
    EFP Energy =                            0.0000000000000000
    Total Energy =                        -76.0026678286589856

    Alert: EFP and PCM quantities not currently incorporated into SCF psivars.

Properties will be evaluated at   0.000000,   0.000000,   0.000000 Bohr
  ==> Properties <==

Properties computed using the SCF density matrix

  Nuclear Dipole Moment: (a.u.)
     X:    -0.9270      Y:    -0.0088      Z:     0.0000

  Electronic Dipole Moment: (a.u.)
     X:     0.1654      Y:     0.0036      Z:     0.0000

  Dipole Moment: (a.u.)
     X:    -0.7616      Y:    -0.0052      Z:     0.0000     Total:     0.7616

  Dipole Moment: (Debye)
     X:    -1.9357      Y:    -0.0132      Z:     0.0000     Total:     1.9357

  Saving occupied orbitals to File 180.

*** tstop() called on s172-20-46-h184.paws.uga.edu at Tue Jul  7 16:06:59 2015
Module time:
	user time   =       0.19 seconds =       0.00 minutes
	system time =       0.01 seconds =       0.00 minutes
	total time  =          1 seconds =       0.02 minutes
Total time:
	user time   =       0.19 seconds =       0.00 minutes
	system time =       0.01 seconds =       0.00 minutes
	total time  =          1 seconds =       0.02 minutes

*** PSI4 exiting successfully. Buy a developer a beer!
