                               Psi4 1.1 release

  ==> Input File <==

--------------------------------------------------------------------------
molecule {
O     -0.00500000000   -0.00500000000   -0.07117629540
H      0.00000000000   -0.89161956800    0.56480976130
H      0.00000000000    0.89161956800    0.56480976130

}

set e_convergence 11
set basis         cc-pVDZ
energy('scf')

--------------------------------------------------------------------------

    Molecular point group: cs

    Geometry (in Angstrom), charge = 0, multiplicity = 1:

       Center              X                  Y                   Z               Mass
    ------------   -----------------  -----------------  -----------------  -----------------
           O          0.071178498538    -0.000559574366     0.000000000000    15.994914619560
           H         -0.564827212378    -0.887179142366     0.000000000000     1.007825032070
           H         -0.564827212378     0.896059993634     0.000000000000     1.007825032070

  Charge       = 0
  Multiplicity = 1
  Basis Set: CC-PVDZ
    Blend: CC-PVDZ
  Basis Set: (CC-PVDZ AUX)
    Blend: CC-PVDZ-JKFIT

    Orbital Energies (a.u.)
    -----------------------

    Doubly Occupied:

       1Ap   -20.570450     2Ap    -1.275810     3Ap    -0.638651
       4Ap    -0.533131     1App   -0.484270

  @DF-RHF Final Energy:   -75.99012768188472

   => Energetics <=

    Nuclear Repulsion Energy =              8.0276051140105178
    One-Electron Energy =                -121.0308409029185839
    Two-Electron Energy =                  37.0131081070233634
    DFT Exchange-Correlation Energy =       0.0000000000000000
    Empirical Dispersion Energy =           0.0000000000000000
    PCM Polarization Energy =               0.0000000000000000
    EFP Energy =                            0.0000000000000000
    Total Energy =                        -75.9901276818847009
*** Psi4 exiting successfully. Buy a developer a beer!
