                               Psi4 1.1 release

  ==> Input File <==

--------------------------------------------------------------------------
molecule {
O     -0.00500000000    0.00000000000   -0.07617629540
H      0.00000000000   -0.89161956800    0.56480976130
H      0.00000000000    0.89161956800    0.56480976130

}

set e_convergence 11
set basis         cc-pVDZ
energy('scf')

--------------------------------------------------------------------------

    Molecular point group: c2v

    Geometry (in Angstrom), charge = 0, multiplicity = 1:

       Center              X                  Y                   Z               Mass
    ------------   -----------------  -----------------  -----------------  -----------------
           O         -0.000000000000     0.000000000000    -0.071738055747    15.994914619560
           H          0.000000000000    -0.891619568000     0.569267501861     1.007825032070
           H         -0.000000000000     0.891619568000     0.569267501861     1.007825032070

  Charge       = 0
  Multiplicity = 1
  Basis Set: CC-PVDZ
    Blend: CC-PVDZ
  Basis Set: (CC-PVDZ AUX)
    Blend: CC-PVDZ-JKFIT

    Orbital Energies (a.u.)
    -----------------------

    Doubly Occupied:

       1A1   -20.571227     2A1    -1.275121     1B2    -0.636808
       3A1    -0.533436     1B1    -0.484396

  @DF-RHF Final Energy:   -75.98912935047557

   => Energetics <=

    Nuclear Repulsion Energy =              8.0070318724971727
    One-Electron Energy =                -120.9903440725048114
    Two-Electron Energy =                  36.9941828495320877
    DFT Exchange-Correlation Energy =       0.0000000000000000
    Empirical Dispersion Energy =           0.0000000000000000
    PCM Polarization Energy =               0.0000000000000000
    EFP Energy =                            0.0000000000000000
    Total Energy =                        -75.9891293504755652
*** Psi4 exiting successfully. Buy a developer a beer!
