                               Psi4 1.1 release

  ==> Input File <==

--------------------------------------------------------------------------
molecule {
O      0.00500000000    0.00000000000   -0.06617629540
H      0.00000000000   -0.89161956800    0.56480976130
H      0.00000000000    0.89161956800    0.56480976130

}

set e_convergence 11
set basis         cc-pVDZ
energy('scf')

--------------------------------------------------------------------------

    Molecular point group: c2v

    Geometry (in Angstrom), charge = 0, multiplicity = 1:

       Center              X                  Y                   Z               Mass
    ------------   -----------------  -----------------  -----------------  -----------------
           O          0.000000000000     0.000000000000    -0.070618941601    15.994914619560
           H          0.000000000000    -0.891619568000     0.560386925052     1.007825032070
           H         -0.000000000000     0.891619568000     0.560386925052     1.007825032070

  Charge       = 0
  Multiplicity = 1
  Basis Set: CC-PVDZ
    Blend: CC-PVDZ
  Basis Set: (CC-PVDZ AUX)
    Blend: CC-PVDZ-JKFIT

    Orbital Energies (a.u.)
    -----------------------

    Doubly Occupied:

       1A1   -20.569673     2A1    -1.276478     1B2    -0.640485
       3A1    -0.532827     1B1    -0.484140

  @DF-RHF Final Energy:   -75.99112864141748

   => Energetics <=

    Nuclear Repulsion Energy =              8.0480209845026831
    One-Electron Energy =                -121.0710933300306635
    Two-Electron Energy =                  37.0319437041105033
    DFT Exchange-Correlation Energy =       0.0000000000000000
    Empirical Dispersion Energy =           0.0000000000000000
    PCM Polarization Energy =               0.0000000000000000
    EFP Energy =                            0.0000000000000000
    Total Energy =                        -75.9911286414174754
*** Psi4 exiting successfully. Buy a developer a beer!
