                               Psi4 1.1 release

  ==> Input File <==

--------------------------------------------------------------------------
molecule {
O     -0.00500000000    0.00000000000   -0.07117629540
H      0.00000000000   -0.89161956800    0.55980976130
H      0.00000000000    0.89161956800    0.56480976130

}

set e_convergence 11
set basis         cc-pVDZ
energy('scf')

--------------------------------------------------------------------------

    Molecular point group: cs

    Geometry (in Angstrom), charge = 0, multiplicity = 1:

       Center              X                  Y                   Z               Mass
    ------------   -----------------  -----------------  -----------------  -----------------
           O          0.070898720035    -0.000000000000     0.000000000000    15.994914619560
           H         -0.560107146309    -0.891619568218     0.000000000000     1.007825032070
           H         -0.565106990575     0.891619568218     0.000000000000     1.007825032070

  Charge       = 0
  Multiplicity = 1
  Basis Set: CC-PVDZ
    Blend: CC-PVDZ
  Basis Set: (CC-PVDZ AUX)
    Blend: CC-PVDZ-JKFIT

    Orbital Energies (a.u.)
    -----------------------

    Doubly Occupied:

       1Ap   -20.570061     2Ap    -1.276139     3Ap    -0.639565
       4Ap    -0.532981     1App   -0.484204

  @DF-RHF Final Energy:   -75.99063571360170

   => Energetics <=

    Nuclear Repulsion Energy =              8.0377720723312578
    One-Electron Energy =                -121.0509154113388206
    Two-Electron Energy =                  37.0225076254058720
    DFT Exchange-Correlation Energy =       0.0000000000000000
    Empirical Dispersion Energy =           0.0000000000000000
    PCM Polarization Energy =               0.0000000000000000
    EFP Energy =                            0.0000000000000000
    Total Energy =                        -75.9906357136017050
*** Psi4 exiting successfully. Buy a developer a beer!
