                               Psi4 1.1 release

  ==> Input File <==

--------------------------------------------------------------------------
molecule {
O      0.00500000000    0.00000000000   -0.07117629540
H      0.00000000000   -0.89161956800    0.56480976130
H      0.00500000000    0.89161956800    0.56480976130

}

set e_convergence 11
set basis         cc-pVDZ
energy('scf')

--------------------------------------------------------------------------

    Molecular point group: cs

    Geometry (in Angstrom), charge = 0, multiplicity = 1:

       Center              X                  Y                   Z               Mass
    ------------   -----------------  -----------------  -----------------  -----------------
           O          0.071176848845    -0.000000000000     0.000000000000    15.994914619560
           H         -0.564823948650    -0.891623072797     0.000000000000     1.007825032070
           H         -0.564804294283     0.891623072797     0.000000000000     1.007825032070

  Charge       = 0
  Multiplicity = 1
  Basis Set: CC-PVDZ
    Blend: CC-PVDZ
  Basis Set: (CC-PVDZ AUX)
    Blend: CC-PVDZ-JKFIT

    Orbital Energies (a.u.)
    -----------------------

    Doubly Occupied:

       1Ap   -20.570448     2Ap    -1.275800     3Ap    -0.638649
       4Ap    -0.533134     1App   -0.484267

  @DF-RHF Final Energy:   -75.99014323757051

   => Energetics <=

    Nuclear Repulsion Energy =              8.0275646088917938
    One-Electron Energy =                -121.0308194083594344
    Two-Electron Energy =                  37.0131115618971336
    DFT Exchange-Correlation Energy =       0.0000000000000000
    Empirical Dispersion Energy =           0.0000000000000000
    PCM Polarization Energy =               0.0000000000000000
    EFP Energy =                            0.0000000000000000
    Total Energy =                        -75.9901432375705070
*** Psi4 exiting successfully. Buy a developer a beer!
