                               Psi4 1.1 release

  ==> Input File <==

--------------------------------------------------------------------------
molecule {
O     -0.00500000000    0.00000000000   -0.07117629540
H      0.00000000000   -0.89161956800    0.56480976130
H      0.00000000000    0.88661956800    0.56480976130

}

set e_convergence 11
set basis         cc-pVDZ
energy('scf')

--------------------------------------------------------------------------

    Molecular point group: cs

    Geometry (in Angstrom), charge = 0, multiplicity = 1:

       Center              X                  Y                   Z               Mass
    ------------   -----------------  -----------------  -----------------  -----------------
           O          0.071178498538     0.000279787183     0.000000000000    15.994914619560
           H         -0.564827212378    -0.891339780817     0.000000000000     1.007825032070
           H         -0.564827212378     0.886899355183     0.000000000000     1.007825032070

  Charge       = 0
  Multiplicity = 1
  Basis Set: CC-PVDZ
    Blend: CC-PVDZ
  Basis Set: (CC-PVDZ AUX)
    Blend: CC-PVDZ-JKFIT

    Orbital Energies (a.u.)
    -----------------------

    Doubly Occupied:

       1Ap   -20.570240     2Ap    -1.276587     3Ap    -0.639362
       4Ap    -0.533767     1App   -0.484404

  @DF-RHF Final Energy:   -75.99102930642725

   => Energetics <=

    Nuclear Repulsion Energy =              8.0427660956068081
    One-Electron Energy =                -121.0588684528591727
    Two-Electron Energy =                  37.0250730508251138
    DFT Exchange-Correlation Energy =       0.0000000000000000
    Empirical Dispersion Energy =           0.0000000000000000
    PCM Polarization Energy =               0.0000000000000000
    EFP Energy =                            0.0000000000000000
    Total Energy =                        -75.9910293064272508
*** Psi4 exiting successfully. Buy a developer a beer!
