                               Psi4 1.1 release

  ==> Input File <==

--------------------------------------------------------------------------
molecule {
O      0.00500000000    0.00000000000   -0.07117629540
H      0.00000000000   -0.89161956800    0.56480976130
H      0.00000000000    0.89161956800    0.56980976130

}

set e_convergence 11
set basis         cc-pVDZ
energy('scf')

--------------------------------------------------------------------------

    Molecular point group: cs

    Geometry (in Angstrom), charge = 0, multiplicity = 1:

       Center              X                  Y                   Z               Mass
    ------------   -----------------  -----------------  -----------------  -----------------
           O          0.071458277108    -0.000000000000     0.000000000000    15.994914619560
           H         -0.564547433505    -0.891619568215     0.000000000000     1.007825032070
           H         -0.569547280200     0.891619568215     0.000000000000     1.007825032070

  Charge       = 0
  Multiplicity = 1
  Basis Set: CC-PVDZ
    Blend: CC-PVDZ
  Basis Set: (CC-PVDZ AUX)
    Blend: CC-PVDZ-JKFIT

    Orbital Energies (a.u.)
    -----------------------

    Doubly Occupied:

       1Ap   -20.570839     2Ap    -1.275461     3Ap    -0.637726
       4Ap    -0.533286     1App   -0.484332

  @DF-RHF Final Energy:   -75.98963606538881

   => Energetics <=

    Nuclear Repulsion Energy =              8.0172775163285017
    One-Electron Energy =                -121.0105408877713700
    Two-Electron Energy =                  37.0036273060540495
    DFT Exchange-Correlation Energy =       0.0000000000000000
    Empirical Dispersion Energy =           0.0000000000000000
    PCM Polarization Energy =               0.0000000000000000
    EFP Energy =                            0.0000000000000000
    Total Energy =                        -75.9896360653888223
*** Psi4 exiting successfully. Buy a developer a beer!
