                               Psi4 1.1 release

  ==> Input File <==

--------------------------------------------------------------------------
molecule {
O      0.00000000000    0.00500000000   -0.06617629540
H      0.00000000000   -0.89161956800    0.56480976130
H      0.00000000000    0.89161956800    0.56480976130

}

set e_convergence 11
set basis         cc-pVDZ
energy('scf')

--------------------------------------------------------------------------

    Molecular point group: cs

    Geometry (in Angstrom), charge = 0, multiplicity = 1:

       Center              X                  Y                   Z               Mass
    ------------   -----------------  -----------------  -----------------  -----------------
           O         -0.000559574366     0.070616724572     0.000000000000    15.994914619560
           H          0.896059993634    -0.560369332128     0.000000000000     1.007825032070
           H         -0.887179142366    -0.560369332128     0.000000000000     1.007825032070

  Charge       = 0
  Multiplicity = 1
  Basis Set: CC-PVDZ
    Blend: CC-PVDZ
  Basis Set: (CC-PVDZ AUX)
    Blend: CC-PVDZ-JKFIT

    Orbital Energies (a.u.)
    -----------------------

    Doubly Occupied:

       1Ap   -20.569669     2Ap    -1.276492     3Ap    -0.640499
       4Ap    -0.532821     1App   -0.484142

  @DF-RHF Final Energy:   -75.99111831411244

   => Energetics <=

    Nuclear Repulsion Energy =              8.0481833105164089
    One-Electron Energy =                -121.0713563908552572
    Two-Electron Energy =                  37.0320547662263948
    DFT Exchange-Correlation Energy =       0.0000000000000000
    Empirical Dispersion Energy =           0.0000000000000000
    PCM Polarization Energy =               0.0000000000000000
    EFP Energy =                            0.0000000000000000
    Total Energy =                        -75.9911183141124553
*** Psi4 exiting successfully. Buy a developer a beer!
