                               Psi4 1.1 release

  ==> Input File <==

--------------------------------------------------------------------------
molecule {
O      0.00000000000   -0.00500000000   -0.07117629540
H      0.00000000000   -0.89161956800    0.56480976130
H     -0.00500000000    0.89161956800    0.56480976130

}

set e_convergence 11
set basis         cc-pVDZ
energy('scf')

--------------------------------------------------------------------------

    Molecular point group: cs

    Geometry (in Angstrom), charge = 0, multiplicity = 1:

       Center              X                  Y                   Z               Mass
    ------------   -----------------  -----------------  -----------------  -----------------
           O          0.071176848827    -0.000559576566     0.000000000000    15.994914619560
           H         -0.564804349253    -0.887182629709     0.000000000000     1.007825032070
           H         -0.564823893405     0.896063515886     0.000000000000     1.007825032070

  Charge       = 0
  Multiplicity = 1
  Basis Set: CC-PVDZ
    Blend: CC-PVDZ
  Basis Set: (CC-PVDZ AUX)
    Blend: CC-PVDZ-JKFIT

    Orbital Energies (a.u.)
    -----------------------

    Doubly Occupied:

       1Ap   -20.570448     2Ap    -1.275811     3Ap    -0.638655
       4Ap    -0.533129     1App   -0.484270

  @DF-RHF Final Energy:   -75.99012934537225

   => Energetics <=

    Nuclear Repulsion Energy =              8.0276446818472902
    One-Electron Energy =                -121.0309213016809196
    Two-Electron Energy =                  37.0131472744613674
    DFT Exchange-Correlation Energy =       0.0000000000000000
    Empirical Dispersion Energy =           0.0000000000000000
    PCM Polarization Energy =               0.0000000000000000
    EFP Energy =                            0.0000000000000000
    Total Energy =                        -75.9901293453722531
*** Psi4 exiting successfully. Buy a developer a beer!
