                               Psi4 1.1 release

  ==> Input File <==

--------------------------------------------------------------------------
molecule {
O      0.00000000000    0.00500000000   -0.07117629540
H      0.00000000000   -0.89161956800    0.56480976130
H      0.00000000000    0.89161956800    0.56980976130

}

set e_convergence 11
set basis         cc-pVDZ
energy('scf')

--------------------------------------------------------------------------

    Molecular point group: cs

    Geometry (in Angstrom), charge = 0, multiplicity = 1:

       Center              X                  Y                   Z               Mass
    ------------   -----------------  -----------------  -----------------  -----------------
           O         -0.000559574366     0.071456086122     0.000000000000    15.994914619560
           H          0.896059993634    -0.564529970578     0.000000000000     1.007825032070
           H         -0.887179142366    -0.569529970578     0.000000000000     1.007825032070

  Charge       = 0
  Multiplicity = 1
  Basis Set: CC-PVDZ
    Blend: CC-PVDZ
  Basis Set: (CC-PVDZ AUX)
    Blend: CC-PVDZ-JKFIT

    Orbital Energies (a.u.)
    -----------------------

    Doubly Occupied:

       1Ap   -20.570838     2Ap    -1.275465     3Ap    -0.637730
       4Ap    -0.533284     1App   -0.484333

  @DF-RHF Final Energy:   -75.98963329969348

   => Energetics <=

    Nuclear Repulsion Energy =              8.0173226930552026
    One-Electron Energy =                -121.0106138649065315
    Two-Electron Energy =                  37.0036578721578522
    DFT Exchange-Correlation Energy =       0.0000000000000000
    Empirical Dispersion Energy =           0.0000000000000000
    PCM Polarization Energy =               0.0000000000000000
    EFP Energy =                            0.0000000000000000
    Total Energy =                        -75.9896332996934802
*** Psi4 exiting successfully. Buy a developer a beer!
