                               Psi4 1.1 release

  ==> Input File <==

--------------------------------------------------------------------------
molecule {
O      0.00000000000    0.00000000000   -0.06617629540
H      0.00000000000   -0.89161956800    0.56480976130
H      0.00000000000    0.89161956800    0.56480976130

}

set e_convergence 11
set basis         cc-pVDZ
energy('scf')

--------------------------------------------------------------------------

    Molecular point group: c2v

    Geometry (in Angstrom), charge = 0, multiplicity = 1:

       Center              X                  Y                   Z               Mass
    ------------   -----------------  -----------------  -----------------  -----------------
           O          0.000000000000     0.000000000000    -0.070616724572    15.994914619560
           H          0.000000000000    -0.891619568000     0.560369332128     1.007825032070
           H         -0.000000000000     0.891619568000     0.560369332128     1.007825032070

  Charge       = 0
  Multiplicity = 1
  Basis Set: CC-PVDZ
    Blend: CC-PVDZ
  Basis Set: (CC-PVDZ AUX)
    Blend: CC-PVDZ-JKFIT

    Orbital Energies (a.u.)
    -----------------------

    Doubly Occupied:

       1A1   -20.569669     2A1    -1.276480     1B2    -0.640493
       3A1    -0.532826     1B1    -0.484140

  @DF-RHF Final Energy:   -75.99113250219165

   => Energetics <=

    Nuclear Repulsion Energy =              8.0481021914671764
    One-Electron Energy =                -121.0712531546777058
    Two-Electron Energy =                  37.0320184610188790
    DFT Exchange-Correlation Energy =       0.0000000000000000
    Empirical Dispersion Energy =           0.0000000000000000
    PCM Polarization Energy =               0.0000000000000000
    EFP Energy =                            0.0000000000000000
    Total Energy =                        -75.9911325021916468
*** Psi4 exiting successfully. Buy a developer a beer!
