                               Psi4 1.1 release

  ==> Input File <==

--------------------------------------------------------------------------
molecule {
O      0.00000000000    0.00000000000   -0.06617629540
H      0.00500000000   -0.89161956800    0.56480976130
H      0.00000000000    0.89161956800    0.56480976130

}

set e_convergence 11
set basis         cc-pVDZ
energy('scf')

--------------------------------------------------------------------------

    Molecular point group: cs

    Geometry (in Angstrom), charge = 0, multiplicity = 1:

       Center              X                  Y                   Z               Mass
    ------------   -----------------  -----------------  -----------------  -----------------
           O          0.070617278836     0.000000000000     0.000000000000    15.994914619560
           H         -0.560383635465    -0.891623072796     0.000000000000     1.007825032070
           H         -0.560363825357     0.891623072796     0.000000000000     1.007825032070

  Charge       = 0
  Multiplicity = 1
  Basis Set: CC-PVDZ
    Blend: CC-PVDZ
  Basis Set: (CC-PVDZ AUX)
    Blend: CC-PVDZ-JKFIT

    Orbital Energies (a.u.)
    -----------------------

    Doubly Occupied:

       1Ap   -20.569671     2Ap    -1.276479     3Ap    -0.640490
       4Ap    -0.532825     1App   -0.484140

  @DF-RHF Final Energy:   -75.99113028629984

   => Energetics <=

    Nuclear Repulsion Energy =              8.0480604214981462
    One-Electron Energy =                -121.0711737089861515
    Two-Electron Energy =                  37.0319830011881663
    DFT Exchange-Correlation Energy =       0.0000000000000000
    Empirical Dispersion Energy =           0.0000000000000000
    PCM Polarization Energy =               0.0000000000000000
    EFP Energy =                            0.0000000000000000
    Total Energy =                        -75.9911302862998355
*** Psi4 exiting successfully. Buy a developer a beer!
