                               Psi4 1.1 release

  ==> Input File <==

--------------------------------------------------------------------------
molecule {
O      0.00000000000    0.00000000000   -0.07617629540
H      0.00000000000   -0.89661956800    0.56480976130
H      0.00000000000    0.89161956800    0.56480976130

}

set e_convergence 11
set basis         cc-pVDZ
energy('scf')

--------------------------------------------------------------------------

    Molecular point group: cs

    Geometry (in Angstrom), charge = 0, multiplicity = 1:

       Center              X                  Y                   Z               Mass
    ------------   -----------------  -----------------  -----------------  -----------------
           O         -0.000279787183     0.071735873305     0.000000000000    15.994914619560
           H          0.896339780817    -0.569250183395     0.000000000000     1.007825032070
           H         -0.891899355183    -0.569250183395     0.000000000000     1.007825032070

  Charge       = 0
  Multiplicity = 1
  Basis Set: CC-PVDZ
    Blend: CC-PVDZ
  Basis Set: (CC-PVDZ AUX)
    Blend: CC-PVDZ-JKFIT

    Orbital Energies (a.u.)
    -----------------------

    Doubly Occupied:

       1Ap   -20.571434     2Ap    -1.274354     3Ap    -0.636110
       4Ap    -0.532803     1App   -0.484264

  @DF-RHF Final Energy:   -75.98822773995983

   => Energetics <=

    Nuclear Repulsion Energy =              7.9920682580066646
    One-Electron Energy =                -120.9626631399739551
    Two-Electron Energy =                  36.9823671420074618
    DFT Exchange-Correlation Energy =       0.0000000000000000
    Empirical Dispersion Energy =           0.0000000000000000
    PCM Polarization Energy =               0.0000000000000000
    EFP Energy =                            0.0000000000000000
    Total Energy =                        -75.9882277399598252
*** Psi4 exiting successfully. Buy a developer a beer!
