                               Psi4 1.1 release

  ==> Input File <==

--------------------------------------------------------------------------
molecule {
O      0.00000000000    0.00000000000   -0.07617629540
H      0.00000000000   -0.89161956800    0.55980976130
H      0.00000000000    0.89161956800    0.56480976130

}

set e_convergence 11
set basis         cc-pVDZ
energy('scf')

--------------------------------------------------------------------------

    Molecular point group: cs

    Geometry (in Angstrom), charge = 0, multiplicity = 1:

       Center              X                  Y                   Z               Mass
    ------------   -----------------  -----------------  -----------------  -----------------
           O          0.000000000000     0.071456086122     0.000000000000    15.994914619560
           H          0.891619568000    -0.564529970578     0.000000000000     1.007825032070
           H         -0.891619568000    -0.569529970578     0.000000000000     1.007825032070

  Charge       = 0
  Multiplicity = 1
  Basis Set: CC-PVDZ
    Blend: CC-PVDZ
  Basis Set: (CC-PVDZ AUX)
    Blend: CC-PVDZ-JKFIT

    Orbital Energies (a.u.)
    -----------------------

    Doubly Occupied:

       1Ap   -20.570836     2Ap    -1.275463     3Ap    -0.637734
       4Ap    -0.533284     1App   -0.484332

  @DF-RHF Final Energy:   -75.98964002838213

   => Energetics <=

    Nuclear Repulsion Energy =              8.0173577613097073
    One-Electron Energy =                -121.0106990513302208
    Two-Electron Energy =                  37.0037012616383834
    DFT Exchange-Correlation Energy =       0.0000000000000000
    Empirical Dispersion Energy =           0.0000000000000000
    PCM Polarization Energy =               0.0000000000000000
    EFP Energy =                            0.0000000000000000
    Total Energy =                        -75.9896400283821265
*** Psi4 exiting successfully. Buy a developer a beer!
