                               Psi4 1.1 release

  ==> Input File <==

--------------------------------------------------------------------------
molecule {
O      0.00000000000    0.00000000000   -0.07617629540
H      0.00000000000   -0.89161956800    0.56480976130
H     -0.00500000000    0.89161956800    0.56480976130

}

set e_convergence 11
set basis         cc-pVDZ
energy('scf')

--------------------------------------------------------------------------

    Molecular point group: cs

    Geometry (in Angstrom), charge = 0, multiplicity = 1:

       Center              X                  Y                   Z               Mass
    ------------   -----------------  -----------------  -----------------  -----------------
           O          0.071736418922     0.000000000000     0.000000000000    15.994914619560
           H         -0.569244762533    -0.891623072798     0.000000000000     1.007825032070
           H         -0.569264263589     0.891623072798     0.000000000000     1.007825032070

  Charge       = 0
  Multiplicity = 1
  Basis Set: CC-PVDZ
    Blend: CC-PVDZ
  Basis Set: (CC-PVDZ AUX)
    Blend: CC-PVDZ-JKFIT

    Orbital Energies (a.u.)
    -----------------------

    Doubly Occupied:

       1Ap   -20.571225     2Ap    -1.275122     3Ap    -0.636813
       4Ap    -0.533434     1App   -0.484396

  @DF-RHF Final Energy:   -75.98913108833553

   => Energetics <=

    Nuclear Repulsion Energy =              8.0070706687464153
    One-Electron Energy =                -120.9904233455126246
    Two-Electron Energy =                  36.9942215884306833
    DFT Exchange-Correlation Energy =       0.0000000000000000
    Empirical Dispersion Energy =           0.0000000000000000
    PCM Polarization Energy =               0.0000000000000000
    EFP Energy =                            0.0000000000000000
    Total Energy =                        -75.9891310883355118
*** Psi4 exiting successfully. Buy a developer a beer!
