                               Psi4 1.1 release

  ==> Input File <==

--------------------------------------------------------------------------
molecule {
O      0.00000000000    0.00000000000   -0.07117629540
H     -0.00500000000   -0.89161956800    0.56480976130
H     -0.00500000000    0.89161956800    0.56480976130

}

set e_convergence 11
set basis         cc-pVDZ
energy('scf')

--------------------------------------------------------------------------

    Molecular point group: c2v

    Geometry (in Angstrom), charge = 0, multiplicity = 1:

       Center              X                  Y                   Z               Mass
    ------------   -----------------  -----------------  -----------------  -----------------
           O         -0.000000000000     0.000000000000    -0.071178498538    15.994914619560
           H          0.000000000000    -0.891619568000     0.564827212378     1.007825032070
           H         -0.000000000000     0.891619568000     0.564827212378     1.007825032070

  Charge       = 0
  Multiplicity = 1
  Basis Set: CC-PVDZ
    Blend: CC-PVDZ
  Basis Set: (CC-PVDZ AUX)
    Blend: CC-PVDZ-JKFIT

    Orbital Energies (a.u.)
    -----------------------

    Doubly Occupied:

       1A1   -20.570450     2A1    -1.275799     1B2    -0.638644
       3A1    -0.533136     1B1    -0.484268

  @DF-RHF Final Energy:   -75.99014154560759

   => Energetics <=

    Nuclear Repulsion Energy =              8.0275254931334015
    One-Electron Energy =                -121.0307396947902134
    Two-Electron Energy =                  37.0130726560492320
    DFT Exchange-Correlation Energy =       0.0000000000000000
    Empirical Dispersion Energy =           0.0000000000000000
    PCM Polarization Energy =               0.0000000000000000
    EFP Energy =                            0.0000000000000000
    Total Energy =                        -75.9901415456075853
*** Psi4 exiting successfully. Buy a developer a beer!
