                               Psi4 1.1 release

  ==> Input File <==

--------------------------------------------------------------------------
molecule {
O      0.00000000000    0.00000000000   -0.07117629540
H     -0.00500000000   -0.89161956800    0.56480976130
H      0.00000000000    0.88661956800    0.56480976130

}

set e_convergence 11
set basis         cc-pVDZ
energy('scf')

--------------------------------------------------------------------------

    Molecular point group: cs

    Geometry (in Angstrom), charge = 0, multiplicity = 1:

       Center              X                  Y                   Z               Mass
    ------------   -----------------  -----------------  -----------------  -----------------
           O          0.071176848840     0.000279788289     0.000000000000    15.994914619560
           H         -0.564823920984    -0.891343304245     0.000000000000     1.007825032070
           H         -0.564804321879     0.886902861059     0.000000000000     1.007825032070

  Charge       = 0
  Multiplicity = 1
  Basis Set: CC-PVDZ
    Blend: CC-PVDZ
  Basis Set: (CC-PVDZ AUX)
    Blend: CC-PVDZ-JKFIT

    Orbital Energies (a.u.)
    -----------------------

    Doubly Occupied:

       1Ap   -20.570238     2Ap    -1.276588     3Ap    -0.639367
       4Ap    -0.533765     1App   -0.484404

  @DF-RHF Final Energy:   -75.99103098255485

   => Energetics <=

    Nuclear Repulsion Energy =              8.0428056535762487
    One-Electron Energy =                -121.0589488300472567
    Two-Electron Energy =                  37.0251121939161649
    DFT Exchange-Correlation Energy =       0.0000000000000000
    Empirical Dispersion Energy =           0.0000000000000000
    PCM Polarization Energy =               0.0000000000000000
    EFP Energy =                            0.0000000000000000
    Total Energy =                        -75.9910309825548325
*** Psi4 exiting successfully. Buy a developer a beer!
