                               Psi4 1.1 release

  ==> Input File <==

--------------------------------------------------------------------------
molecule {
O      0.00000000000    0.00000000000   -0.07117629540
H      0.00500000000   -0.89161956800    0.56480976130
H      0.00000000000    0.89161956800    0.56980976130

}

set e_convergence 11
set basis         cc-pVDZ
energy('scf')

--------------------------------------------------------------------------

    Molecular point group: cs

    Geometry (in Angstrom), charge = 0, multiplicity = 1:

       Center              X                  Y                   Z               Mass
    ------------   -----------------  -----------------  -----------------  -----------------
           O          0.071456633875     0.000000000000     0.000000000000    15.994914619560
           H         -0.564544125066    -0.891623100297     0.000000000000     1.007825032070
           H         -0.569524509327     0.891623100297     0.000000000000     1.007825032070

  Charge       = 0
  Multiplicity = 1
  Basis Set: CC-PVDZ
    Blend: CC-PVDZ
  Basis Set: (CC-PVDZ AUX)
    Blend: CC-PVDZ-JKFIT

    Orbital Energies (a.u.)
    -----------------------

    Doubly Occupied:

       1Ap   -20.570837     2Ap    -1.275462     3Ap    -0.637731
       4Ap    -0.533284     1App   -0.484331

  @DF-RHF Final Energy:   -75.98963779012425

   => Energetics <=

    Nuclear Repulsion Energy =              8.0173163125915039
    One-Electron Energy =                -121.0106199534148033
    Two-Electron Energy =                  37.0036658506990577
    DFT Exchange-Correlation Energy =       0.0000000000000000
    Empirical Dispersion Energy =           0.0000000000000000
    PCM Polarization Energy =               0.0000000000000000
    EFP Energy =                            0.0000000000000000
    Total Energy =                        -75.9896377901242488
*** Psi4 exiting successfully. Buy a developer a beer!
