                               Psi4 1.1 release

  ==> Input File <==

--------------------------------------------------------------------------
molecule {
O      0.00000000000    0.00000000000   -0.07117629540
H      0.00000000000   -0.89661956800    0.56480976130
H      0.00000000000    0.89161956800    0.55980976130

}

set e_convergence 11
set basis         cc-pVDZ
energy('scf')

--------------------------------------------------------------------------

    Molecular point group: cs

    Geometry (in Angstrom), charge = 0, multiplicity = 1:

       Center              X                  Y                   Z               Mass
    ------------   -----------------  -----------------  -----------------  -----------------
           O         -0.000279787183     0.070896511755     0.000000000000    15.994914619560
           H          0.896339780817    -0.565089544945     0.000000000000     1.007825032070
           H         -0.891899355183    -0.560089544945     0.000000000000     1.007825032070

  Charge       = 0
  Multiplicity = 1
  Basis Set: CC-PVDZ
    Blend: CC-PVDZ
  Basis Set: (CC-PVDZ AUX)
    Blend: CC-PVDZ-JKFIT

    Orbital Energies (a.u.)
    -----------------------

    Doubly Occupied:

       1Ap   -20.570267     2Ap    -1.275364     3Ap    -0.638856
       4Ap    -0.532346     1App   -0.484069

  @DF-RHF Final Energy:   -75.98973486479689

   => Energetics <=

    Nuclear Repulsion Energy =              8.0226962059807629
    One-Electron Energy =                -121.0230597948078639
    Two-Electron Energy =                  37.0106287240302194
    DFT Exchange-Correlation Energy =       0.0000000000000000
    Empirical Dispersion Energy =           0.0000000000000000
    PCM Polarization Energy =               0.0000000000000000
    EFP Energy =                            0.0000000000000000
    Total Energy =                        -75.9897348647968727
*** Psi4 exiting successfully. Buy a developer a beer!
