                               Psi4 1.1 release

  ==> Input File <==

--------------------------------------------------------------------------
molecule {
O      0.00000000000    0.00000000000   -0.07117629540
H      0.00000000000   -0.89161956800    0.56980976130
H      0.00000000000    0.89661956800    0.56480976130

}

set e_convergence 11
set basis         cc-pVDZ
energy('scf')

--------------------------------------------------------------------------

    Molecular point group: cs

    Geometry (in Angstrom), charge = 0, multiplicity = 1:

       Center              X                  Y                   Z               Mass
    ------------   -----------------  -----------------  -----------------  -----------------
           O          0.000279787183     0.071456086122     0.000000000000    15.994914619560
           H          0.891899355183    -0.569529970578     0.000000000000     1.007825032070
           H         -0.896339780817    -0.564529970578     0.000000000000     1.007825032070

  Charge       = 0
  Multiplicity = 1
  Basis Set: CC-PVDZ
    Blend: CC-PVDZ
  Basis Set: (CC-PVDZ AUX)
    Blend: CC-PVDZ-JKFIT

    Orbital Energies (a.u.)
    -----------------------

    Doubly Occupied:

       1Ap   -20.571046     2Ap    -1.274684     3Ap    -0.637018
       4Ap    -0.532655     1App   -0.484198

  @DF-RHF Final Energy:   -75.98873925982718

   => Energetics <=

    Nuclear Repulsion Energy =              8.0022010092317881
    One-Electron Energy =                -120.9826789617795839
    Two-Electron Energy =                  36.9917386927206309
    DFT Exchange-Correlation Energy =       0.0000000000000000
    Empirical Dispersion Energy =           0.0000000000000000
    PCM Polarization Energy =               0.0000000000000000
    EFP Energy =                            0.0000000000000000
    Total Energy =                        -75.9887392598271703
*** Psi4 exiting successfully. Buy a developer a beer!
