                              Psi4 0.2.33 Driver

  ==> Input File <==

--------------------------------------------------------------------------
set basis cc-pVDZ

molecule h20 {
0 1
O 0.000000 0.000000 -0.134504
H 0.000000 -1.684917 1.072336
H 0.000000 1.684917 1.067336
units bohr
}

energy('scf')--------------------------------------------------------------------------

*** tstart() called on s172-20-46-h184.paws.uga.edu
*** at Tue Jul  7 16:06:55 2015

         ---------------------------------------------------------
                                   SCF
            by Justin Turney, Rob Parrish, and Andy Simmonett
                              RHF Reference
                        1 Threads,    256 MiB Core
         ---------------------------------------------------------

  ==> Geometry <==

    Molecular point group: cs
    Full point group: Cs

    Geometry (in Bohr), charge = 0, multiplicity = 1:

       Center              X                  Y                   Z
    ------------   -----------------  -----------------  -----------------
           O          0.000000000000     0.134783558477     0.000000000000
           H          1.684917000000    -1.072056441523     0.000000000000
           H         -1.684917000000    -1.067056441523     0.000000000000

  Running in cs symmetry.

  Rotational constants: A =     23.18612  B =     10.52011  C =      7.23666 [cm^-1]
  Rotational constants: A = 695102.30535  B = 315384.99176  C = 216949.61973 [MHz]
  Nuclear repulsion =    8.022181219183514

  Charge       = 0
  Multiplicity = 1
  Electrons    = 10
  Nalpha       = 5
  Nbeta        = 5

  ==> Algorithm <==

  SCF Algorithm Type is DF.
  DIIS enabled.
  MOM disabled.
  Fractional occupation disabled.
  Guess Type is CORE.
  Energy threshold   = 1.00e-06
  Density threshold  = 1.00e-06
  Integral threshold = 0.00e+00

  ==> Primary Basis <==

  Basis Set: CC-PVDZ
    Number of shells: 12
    Number of basis function: 24
    Number of Cartesian functions: 25
    Spherical Harmonics?: true
    Max angular momentum: 2

  ==> Pre-Iterations <==

   -------------------------------------------------------
    Irrep   Nso     Nmo     Nalpha   Nbeta   Ndocc  Nsocc
   -------------------------------------------------------
     A'        18      18       0       0       0       0
     A"         6       6       0       0       0       0
   -------------------------------------------------------
    Total      24      24       5       5       5       0
   -------------------------------------------------------

 OEINTS: Overlap, kinetic, potential, dipole, and quadrupole integrals
         stored in file 35.

  ==> Integral Setup <==

  ==> DFJK: Density-Fitted J/K Matrices <==

    J tasked:                  Yes
    K tasked:                  Yes
    wK tasked:                  No
    OpenMP threads:              1
    Integrals threads:           1
    Memory (MB):               183
    Algorithm:                Core
    Integral Cache:           NONE
    Schwarz Cutoff:          1E-12
    Fitting Condition:       1E-12

   => Auxiliary Basis Set <=

  Basis Set:
    Number of shells: 42
    Number of basis function: 116
    Number of Cartesian functions: 131
    Spherical Harmonics?: true
    Max angular momentum: 3

  Minimum eigenvalue in the overlap matrix is 4.7179310757E-02.
  Using Symmetric Orthogonalization.
  SCF Guess: Core (One-Electron) Hamiltonian.

  ==> Iterations <==

                           Total Energy        Delta E     RMS |[F,P]|

    Occupation by irrep:
             Ap   App
    DOCC [     5,    0 ]

   @DF-RHF iter   1:   -68.98804513394504   -6.89880e+01   1.47640e-01
    Occupation by irrep:
             Ap   App
    DOCC [     4,    1 ]

   @DF-RHF iter   2:   -69.76113384918715   -7.73089e-01   1.34910e-01 DIIS
   @DF-RHF iter   3:   -75.79214588716884   -6.03101e+00   3.66811e-02 DIIS
   @DF-RHF iter   4:   -75.97217144207400   -1.80026e-01   9.66788e-03 DIIS
   @DF-RHF iter   5:   -75.98946784481596   -1.72964e-02   1.09844e-03 DIIS
   @DF-RHF iter   6:   -75.98980257135472   -3.34727e-04   6.58744e-04 DIIS
   @DF-RHF iter   7:   -75.98987670074771   -7.41294e-05   7.84791e-05 DIIS
   @DF-RHF iter   8:   -75.98987915770147   -2.45695e-06   3.14533e-05 DIIS
   @DF-RHF iter   9:   -75.98987930886193   -1.51160e-07   2.41162e-06 DIIS
   @DF-RHF iter  10:   -75.98987931212959   -3.26766e-09   1.08506e-06 DIIS
   @DF-RHF iter  11:   -75.98987931243143   -3.01839e-10   1.99492e-07 DIIS

  ==> Post-Iterations <==

    Orbital Energies (a.u.)
    -----------------------

    Doubly Occupied:

       1Ap   -20.570653     2Ap    -1.275622     3Ap    -0.638165
       4Ap    -0.533215     1App   -0.484301

    Virtual:

       5Ap     0.157932     6Ap     0.231349     7Ap     0.720452
       8Ap     0.729624     9Ap     1.169194     2App    1.189366
      10Ap     1.261018     3App    1.440638    11Ap     1.510176
       4App    1.677030    12Ap     1.790067    13Ap     1.896684
      14Ap     2.166555    15Ap     2.206491     5App    3.159615
       6App    3.227713    16Ap     3.309390    17Ap     3.756318
      18Ap     3.970187

    Final Occupation by Irrep:
             Ap   App
    DOCC [     4,    1 ]

  Energy converged.

  @DF-RHF Final Energy:   -75.98987931243143

   => Energetics <=

    Nuclear Repulsion Energy =              8.0221812191835138
    One-Electron Energy =                -121.0202246476514176
    Two-Electron Energy =                  37.0081641160364825
    DFT Exchange-Correlation Energy =       0.0000000000000000
    Empirical Dispersion Energy =           0.0000000000000000
    PCM Polarization Energy =               0.0000000000000000
    EFP Energy =                            0.0000000000000000
    Total Energy =                        -75.9898793124314267

    Alert: EFP and PCM quantities not currently incorporated into SCF psivars.

Properties will be evaluated at   0.000000,   0.000000,   0.000000 Bohr
  ==> Properties <==

Properties computed using the SCF density matrix

  Nuclear Dipole Moment: (a.u.)
     X:     0.0000      Y:    -1.0608      Z:     0.0000

  Electronic Dipole Moment: (a.u.)
     X:    -0.0005      Y:     0.2379      Z:     0.0000

  Dipole Moment: (a.u.)
     X:    -0.0005      Y:    -0.8229      Z:     0.0000     Total:     0.8229

  Dipole Moment: (Debye)
     X:    -0.0012      Y:    -2.0917      Z:     0.0000     Total:     2.0917

  Saving occupied orbitals to File 180.

*** tstop() called on s172-20-46-h184.paws.uga.edu at Tue Jul  7 16:06:55 2015
Module time:
	user time   =       0.19 seconds =       0.00 minutes
	system time =       0.00 seconds =       0.00 minutes
	total time  =          0 seconds =       0.00 minutes
Total time:
	user time   =       0.19 seconds =       0.00 minutes
	system time =       0.00 seconds =       0.00 minutes
	total time  =          0 seconds =       0.00 minutes

*** PSI4 exiting successfully. Buy a developer a beer!
